HEADER
"PSFversion" "1.00"
"simulator" "spectre"
"version" "18.1.0.421.isr9"
"date" "12:05:23 AM, Sun Mar 6, 2022"
"design" "// Generated for: spectre"
"analysis type" "info"
"analysis name" "designParamVals"
"analysis description" "Circuit Information"
"xVecSorted" "unknown"
"tolerance.relative" 0.000100000
TYPE
"top-level" STRUCT(
"temp" FLOAT DOUBLE
"tnom" FLOAT DOUBLE
"time" FLOAT DOUBLE
"vds" FLOAT DOUBLE
"vgs" FLOAT DOUBLE
"__bsim4_diomod" FLOAT DOUBLE
"__nn_accuracy" FLOAT DOUBLE
"xsf__mos" FLOAT DOUBLE
"xsf__bip" FLOAT DOUBLE
"xsf__dio" FLOAT DOUBLE
"xsf__res" FLOAT DOUBLE
"xsf__cap" FLOAT DOUBLE
"xsf__" FLOAT DOUBLE
"qpva_dis" FLOAT DOUBLE
"qpva_dbf" FLOAT DOUBLE
"qpva_dvaf" FLOAT DOUBLE
"qpva_dikf" FLOAT DOUBLE
"qpva_dise" FLOAT DOUBLE
"qpva_drb" FLOAT DOUBLE
"qpva_drbm" FLOAT DOUBLE
"qpva_dre" FLOAT DOUBLE
"qpva_drc" FLOAT DOUBLE
"qpva_dcje" FLOAT DOUBLE
"qpva_dcjc" FLOAT DOUBLE
"qpva_dtf" FLOAT DOUBLE
"qpva_abf" FLOAT DOUBLE
"qpva_ais" FLOAT DOUBLE
"qpvb_dis" FLOAT DOUBLE
"qpvb_dbf" FLOAT DOUBLE
"qpvb_dvaf" FLOAT DOUBLE
"qpvb_dikf" FLOAT DOUBLE
"qpvb_dise" FLOAT DOUBLE
"qpvb_drb" FLOAT DOUBLE
"qpvb_drbm" FLOAT DOUBLE
"qpvb_dre" FLOAT DOUBLE
"qpvb_drc" FLOAT DOUBLE
"qpvb_dcje" FLOAT DOUBLE
"qpvb_dcjc" FLOAT DOUBLE
"qpvb_dtf" FLOAT DOUBLE
"qpvb_abf" FLOAT DOUBLE
"qpvb_ais" FLOAT DOUBLE
"qpvc_dis" FLOAT DOUBLE
"qpvc_dbf" FLOAT DOUBLE
"qpvc_dvaf" FLOAT DOUBLE
"qpvc_dikf" FLOAT DOUBLE
"qpvc_dise" FLOAT DOUBLE
"qpvc_drb" FLOAT DOUBLE
"qpvc_drbm" FLOAT DOUBLE
"qpvc_dre" FLOAT DOUBLE
"qpvc_drc" FLOAT DOUBLE
"qpvc_dcje" FLOAT DOUBLE
"qpvc_dcjc" FLOAT DOUBLE
"qpvc_dtf" FLOAT DOUBLE
"qpvc_abf" FLOAT DOUBLE
"qpvc_ais" FLOAT DOUBLE
"qpvc_arb" FLOAT DOUBLE
"qpva5_dis" FLOAT DOUBLE
"qpva5_dbf" FLOAT DOUBLE
"qpva5_dvaf" FLOAT DOUBLE
"qpva5_dikf" FLOAT DOUBLE
"qpva5_dise" FLOAT DOUBLE
"qpva5_drb" FLOAT DOUBLE
"qpva5_drbm" FLOAT DOUBLE
"qpva5_dre" FLOAT DOUBLE
"qpva5_drc" FLOAT DOUBLE
"qpva5_dcje" FLOAT DOUBLE
"qpva5_dcjc" FLOAT DOUBLE
"qpva5_dtf" FLOAT DOUBLE
"qpva5_abf" FLOAT DOUBLE
"qpva5_ais" FLOAT DOUBLE
"qpva5_aise" FLOAT DOUBLE
"qpvb5_dis" FLOAT DOUBLE
"qpvb5_dbf" FLOAT DOUBLE
"qpvb5_dvaf" FLOAT DOUBLE
"qpvb5_dikf" FLOAT DOUBLE
"qpvb5_dise" FLOAT DOUBLE
"qpvb5_drb" FLOAT DOUBLE
"qpvb5_drbm" FLOAT DOUBLE
"qpvb5_dre" FLOAT DOUBLE
"qpvb5_drc" FLOAT DOUBLE
"qpvb5_dcje" FLOAT DOUBLE
"qpvb5_dcjc" FLOAT DOUBLE
"qpvb5_dtf" FLOAT DOUBLE
"qpvb5_abf" FLOAT DOUBLE
"qpvb5_ais" FLOAT DOUBLE
"qpvb5_aise" FLOAT DOUBLE
"qpvb5_arb" FLOAT DOUBLE
"qpvc5_dis" FLOAT DOUBLE
"qpvc5_dbf" FLOAT DOUBLE
"qpvc5_dvaf" FLOAT DOUBLE
"qpvc5_dikf" FLOAT DOUBLE
"qpvc5_dise" FLOAT DOUBLE
"qpvc5_drb" FLOAT DOUBLE
"qpvc5_drbm" FLOAT DOUBLE
"qpvc5_dre" FLOAT DOUBLE
"qpvc5_drc" FLOAT DOUBLE
"qpvc5_dcje" FLOAT DOUBLE
"qpvc5_dcjc" FLOAT DOUBLE
"qpvc5_dtf" FLOAT DOUBLE
"qpvc5_abf" FLOAT DOUBLE
"qpvc5_ais" FLOAT DOUBLE
"qpvc5_aise" FLOAT DOUBLE
"qpvc5_arb" FLOAT DOUBLE
"qnva_is" FLOAT DOUBLE
"qnva_ikf" FLOAT DOUBLE
"qnva_re" FLOAT DOUBLE
"qnva_cje" FLOAT DOUBLE
"qnva_cjc" FLOAT DOUBLE
"qnva_tf" FLOAT DOUBLE
"qnva_vef" FLOAT DOUBLE
"qnva_rcx" FLOAT DOUBLE
"qnva_rbx" FLOAT DOUBLE
"qnva_rci" FLOAT DOUBLE
"qnva_rbi" FLOAT DOUBLE
"qnva_ibei" FLOAT DOUBLE
"qnva_iben" FLOAT DOUBLE
"qnva_cjcp" FLOAT DOUBLE
"qnva_ais" FLOAT DOUBLE
"qnva_aibei" FLOAT DOUBLE
"qnva_aiben" FLOAT DOUBLE
"qnva5_is" FLOAT DOUBLE
"qnva5_ikf" FLOAT DOUBLE
"qnva5_re" FLOAT DOUBLE
"qnva5_cje" FLOAT DOUBLE
"qnva5_cjc" FLOAT DOUBLE
"qnva5_tf" FLOAT DOUBLE
"qnva5_vef" FLOAT DOUBLE
"qnva5_rcx" FLOAT DOUBLE
"qnva5_rbx" FLOAT DOUBLE
"qnva5_rci" FLOAT DOUBLE
"qnva5_rbi" FLOAT DOUBLE
"qnva5_ibei" FLOAT DOUBLE
"qnva5_iben" FLOAT DOUBLE
"qnva5_cjcp" FLOAT DOUBLE
"qnva5_ais" FLOAT DOUBLE
"qnva5_aibei" FLOAT DOUBLE
"qnva5_aiben" FLOAT DOUBLE
"qnvb_is" FLOAT DOUBLE
"qnvb_ikf" FLOAT DOUBLE
"qnvb_re" FLOAT DOUBLE
"qnvb_cje" FLOAT DOUBLE
"qnvb_cjc" FLOAT DOUBLE
"qnvb_tf" FLOAT DOUBLE
"qnvb_vef" FLOAT DOUBLE
"qnvb_rcx" FLOAT DOUBLE
"qnvb_rbx" FLOAT DOUBLE
"qnvb_rci" FLOAT DOUBLE
"qnvb_rbi" FLOAT DOUBLE
"qnvb_ibei" FLOAT DOUBLE
"qnvb_iben" FLOAT DOUBLE
"qnvb_cjcp" FLOAT DOUBLE
"qnvb_ais" FLOAT DOUBLE
"qnvb_aibei" FLOAT DOUBLE
"qnvb_aiben" FLOAT DOUBLE
"qpvh_dis" FLOAT DOUBLE
"qpvh_dbf" FLOAT DOUBLE
"qpvh_dvaf" FLOAT DOUBLE
"qpvh_dcje" FLOAT DOUBLE
"qpvh_dcjc" FLOAT DOUBLE
"qpvh_dcjs" FLOAT DOUBLE
"qpvh_dtf" FLOAT DOUBLE
"qpvhascr_dis" FLOAT DOUBLE
"qpvhascr_dbf" FLOAT DOUBLE
"qpvhascr_dvaf" FLOAT DOUBLE
"qpvhascr_dikf" FLOAT DOUBLE
"qpvhascr_dise" FLOAT DOUBLE
"qpvhascr_drb" FLOAT DOUBLE
"qpvhascr_drbm" FLOAT DOUBLE
"qpvhascr_dre" FLOAT DOUBLE
"qpvhascr_drc" FLOAT DOUBLE
"qpvhascr_dcje" FLOAT DOUBLE
"qpvhascr_dcjc" FLOAT DOUBLE
"qpvhascr_dtf" FLOAT DOUBLE
"qnvc_is" FLOAT DOUBLE
"qnvc_ikf" FLOAT DOUBLE
"qnvc_re" FLOAT DOUBLE
"qnvc_cje" FLOAT DOUBLE
"qnvc_cjc" FLOAT DOUBLE
"qnvc_tf" FLOAT DOUBLE
"qnvc_vef" FLOAT DOUBLE
"qnvc_rcx" FLOAT DOUBLE
"qnvc_rbx" FLOAT DOUBLE
"qnvc_rci" FLOAT DOUBLE
"qnvc_rbi" FLOAT DOUBLE
"qnvc_ibei" FLOAT DOUBLE
"qnvc_iben" FLOAT DOUBLE
"qnvc_cjcp" FLOAT DOUBLE
"qnvc_ais" FLOAT DOUBLE
"qnvc_aibei" FLOAT DOUBLE
"qnvc_aiben" FLOAT DOUBLE
"qnvcra_is" FLOAT DOUBLE
"qnvcra_ikf" FLOAT DOUBLE
"qnvcra_re" FLOAT DOUBLE
"qnvcra_cje" FLOAT DOUBLE
"qnvcra_cjc" FLOAT DOUBLE
"qnvcra_tf" FLOAT DOUBLE
"qnvcra_vef" FLOAT DOUBLE
"qnvcra_rcx" FLOAT DOUBLE
"qnvcra_rbx" FLOAT DOUBLE
"qnvcra_rci" FLOAT DOUBLE
"qnvcra_rbi" FLOAT DOUBLE
"qnvcra_ibei" FLOAT DOUBLE
"qnvcra_iben" FLOAT DOUBLE
"qnvcra_cjcp" FLOAT DOUBLE
"qnvcra_ais" FLOAT DOUBLE
"qnvcra_aibei" FLOAT DOUBLE
"qnvcra_aiben" FLOAT DOUBLE
"qnvcrb_is" FLOAT DOUBLE
"qnvcrb_ikf" FLOAT DOUBLE
"qnvcrb_re" FLOAT DOUBLE
"qnvcrb_cje" FLOAT DOUBLE
"qnvcrb_cjc" FLOAT DOUBLE
"qnvcrb_tf" FLOAT DOUBLE
"qnvcrb_vef" FLOAT DOUBLE
"qnvcrb_rcx" FLOAT DOUBLE
"qnvcrb_rbx" FLOAT DOUBLE
"qnvcrb_rci" FLOAT DOUBLE
"qnvcrb_rbi" FLOAT DOUBLE
"qnvcrb_ibei" FLOAT DOUBLE
"qnvcrb_iben" FLOAT DOUBLE
"qnvcrb_cjcp" FLOAT DOUBLE
"qnvcrb_ais" FLOAT DOUBLE
"qnvcrb_aibei" FLOAT DOUBLE
"qnvcrb_aiben" FLOAT DOUBLE
"qpv_pa_dis" FLOAT DOUBLE
"qpv_pa_dbf" FLOAT DOUBLE
"qpv_pa_dvaf" FLOAT DOUBLE
"qpv_pa_dikf" FLOAT DOUBLE
"qpv_pa_dise" FLOAT DOUBLE
"qpv_pa_drb" FLOAT DOUBLE
"qpv_pa_drbm" FLOAT DOUBLE
"qpv_pa_dre" FLOAT DOUBLE
"qpv_pa_drc" FLOAT DOUBLE
"qpv_pa_dcje" FLOAT DOUBLE
"qpv_pa_dcjc" FLOAT DOUBLE
"qpv_pa_dtf" FLOAT DOUBLE
"qpv_pb_dis" FLOAT DOUBLE
"qpv_pb_dbf" FLOAT DOUBLE
"qpv_pb_dvaf" FLOAT DOUBLE
"qpv_pb_dikf" FLOAT DOUBLE
"qpv_pb_dise" FLOAT DOUBLE
"qpv_pb_drb" FLOAT DOUBLE
"qpv_pb_drbm" FLOAT DOUBLE
"qpv_pb_dre" FLOAT DOUBLE
"qpv_pb_drc" FLOAT DOUBLE
"qpv_pb_dcje" FLOAT DOUBLE
"qpv_pb_dcjc" FLOAT DOUBLE
"qpv_pb_dtf" FLOAT DOUBLE
"qpv_pc_dis" FLOAT DOUBLE
"qpv_pc_dbf" FLOAT DOUBLE
"qpv_pc_dvaf" FLOAT DOUBLE
"qpv_pc_dikf" FLOAT DOUBLE
"qpv_pc_dise" FLOAT DOUBLE
"qpv_pc_drb" FLOAT DOUBLE
"qpv_pc_drbm" FLOAT DOUBLE
"qpv_pc_dre" FLOAT DOUBLE
"qpv_pc_drc" FLOAT DOUBLE
"qpv_pc_dcje" FLOAT DOUBLE
"qpv_pc_dcjc" FLOAT DOUBLE
"qpv_pc_dtf" FLOAT DOUBLE
"qpv_pd_dis" FLOAT DOUBLE
"qpv_pd_dbf" FLOAT DOUBLE
"qpv_pd_dvaf" FLOAT DOUBLE
"qpv_pd_dikf" FLOAT DOUBLE
"qpv_pd_dise" FLOAT DOUBLE
"qpv_pd_drb" FLOAT DOUBLE
"qpv_pd_drbm" FLOAT DOUBLE
"qpv_pd_dre" FLOAT DOUBLE
"qpv_pd_drc" FLOAT DOUBLE
"qpv_pd_dcje" FLOAT DOUBLE
"qpv_pd_dcjc" FLOAT DOUBLE
"qpv_pd_dtf" FLOAT DOUBLE
"qpv_pe_dis" FLOAT DOUBLE
"qpv_pe_dbf" FLOAT DOUBLE
"qpv_pe_dvaf" FLOAT DOUBLE
"qpv_pe_dikf" FLOAT DOUBLE
"qpv_pe_dise" FLOAT DOUBLE
"qpv_pe_drb" FLOAT DOUBLE
"qpv_pe_drbm" FLOAT DOUBLE
"qpv_pe_dre" FLOAT DOUBLE
"qpv_pe_drc" FLOAT DOUBLE
"qpv_pe_dcje" FLOAT DOUBLE
"qpv_pe_dcjc" FLOAT DOUBLE
"qpv_pe_dtf" FLOAT DOUBLE
"qpv_pf_dis" FLOAT DOUBLE
"qpv_pf_dbf" FLOAT DOUBLE
"qpv_pf_dvaf" FLOAT DOUBLE
"qpv_pf_dikf" FLOAT DOUBLE
"qpv_pf_dise" FLOAT DOUBLE
"qpv_pf_drb" FLOAT DOUBLE
"qpv_pf_drbm" FLOAT DOUBLE
"qpv_pf_dre" FLOAT DOUBLE
"qpv_pf_drc" FLOAT DOUBLE
"qpv_pf_dcje" FLOAT DOUBLE
"qpv_pf_dcjc" FLOAT DOUBLE
"qpv_pf_dtf" FLOAT DOUBLE
"qpv_pg_dis" FLOAT DOUBLE
"qpv_pg_dbf" FLOAT DOUBLE
"qpv_pg_dvaf" FLOAT DOUBLE
"qpv_pg_dikf" FLOAT DOUBLE
"qpv_pg_dise" FLOAT DOUBLE
"qpv_pg_drb" FLOAT DOUBLE
"qpv_pg_drbm" FLOAT DOUBLE
"qpv_pg_dre" FLOAT DOUBLE
"qpv_pg_drc" FLOAT DOUBLE
"qpv_pg_dcje" FLOAT DOUBLE
"qpv_pg_dcjc" FLOAT DOUBLE
"qpv_pg_dtf" FLOAT DOUBLE
"qnl_pa_dis" FLOAT DOUBLE
"qnl_pa_dbf" FLOAT DOUBLE
"qnl_pa_dbr" FLOAT DOUBLE
"qnl_pa_dvaf" FLOAT DOUBLE
"qnl_pa_dvar" FLOAT DOUBLE
"qnl_pa_dikf" FLOAT DOUBLE
"qnl_pa_dikr" FLOAT DOUBLE
"qnl_pa_dise" FLOAT DOUBLE
"qnl_pa_disc" FLOAT DOUBLE
"qnl_pa_drb" FLOAT DOUBLE
"qnl_pa_drbm" FLOAT DOUBLE
"qnl_pa_dre" FLOAT DOUBLE
"qnl_pa_drc" FLOAT DOUBLE
"qnl_pa_dcje" FLOAT DOUBLE
"qnl_pa_dcjc" FLOAT DOUBLE
"qnl_pa_dtf" FLOAT DOUBLE
"qnl_pb_dis" FLOAT DOUBLE
"qnl_pb_dbf" FLOAT DOUBLE
"qnl_pb_dbr" FLOAT DOUBLE
"qnl_pb_dvaf" FLOAT DOUBLE
"qnl_pb_dvar" FLOAT DOUBLE
"qnl_pb_dikf" FLOAT DOUBLE
"qnl_pb_dikr" FLOAT DOUBLE
"qnl_pb_dise" FLOAT DOUBLE
"qnl_pb_disc" FLOAT DOUBLE
"qnl_pb_drb" FLOAT DOUBLE
"qnl_pb_drbm" FLOAT DOUBLE
"qnl_pb_dre" FLOAT DOUBLE
"qnl_pb_drc" FLOAT DOUBLE
"qnl_pb_dcje" FLOAT DOUBLE
"qnl_pb_dcjc" FLOAT DOUBLE
"qnl_pb_dtf" FLOAT DOUBLE
"qpl_pa_dis" FLOAT DOUBLE
"qpl_pa_dbf" FLOAT DOUBLE
"qpl_pa_dbr" FLOAT DOUBLE
"qpl_pa_dvaf" FLOAT DOUBLE
"qpl_pa_dvar" FLOAT DOUBLE
"qpl_pa_dikf" FLOAT DOUBLE
"qpl_pa_dikr" FLOAT DOUBLE
"qpl_pa_dise" FLOAT DOUBLE
"qpl_pa_disc" FLOAT DOUBLE
"qpl_pa_drb" FLOAT DOUBLE
"qpl_pa_drbm" FLOAT DOUBLE
"qpl_pa_dre" FLOAT DOUBLE
"qpl_pa_drc" FLOAT DOUBLE
"qpl_pa_dcje" FLOAT DOUBLE
"qpl_pa_dcjc" FLOAT DOUBLE
"qpl_pa_dtf" FLOAT DOUBLE
"qpl_pb_dis" FLOAT DOUBLE
"qpl_pb_dbf" FLOAT DOUBLE
"qpl_pb_dbr" FLOAT DOUBLE
"qpl_pb_dvaf" FLOAT DOUBLE
"qpl_pb_dvar" FLOAT DOUBLE
"qpl_pb_dikf" FLOAT DOUBLE
"qpl_pb_dikr" FLOAT DOUBLE
"qpl_pb_dise" FLOAT DOUBLE
"qpl_pb_disc" FLOAT DOUBLE
"qpl_pb_drb" FLOAT DOUBLE
"qpl_pb_drbm" FLOAT DOUBLE
"qpl_pb_dre" FLOAT DOUBLE
"qpl_pb_drc" FLOAT DOUBLE
"qpl_pb_dcje" FLOAT DOUBLE
"qpl_pb_dcjc" FLOAT DOUBLE
"qpl_pb_dtf" FLOAT DOUBLE
"csandwt3_ca" FLOAT DOUBLE
"csandwt3_cp" FLOAT DOUBLE
"csandwt3_ac" FLOAT DOUBLE
"csandwt4_ca" FLOAT DOUBLE
"csandwt4_cp" FLOAT DOUBLE
"csandwt4_ac" FLOAT DOUBLE
"csandwt5_ca" FLOAT DOUBLE
"csandwt5_cp" FLOAT DOUBLE
"csandwt5_ac" FLOAT DOUBLE
"csf2p_factor" FLOAT DOUBLE
"csf2p_ac" FLOAT DOUBLE
"csf2p_ac_b" FLOAT DOUBLE
"csf3p_factor" FLOAT DOUBLE
"csf3p_ac" FLOAT DOUBLE
"csf3p_ac_b" FLOAT DOUBLE
"csf3_factor" FLOAT DOUBLE
"csf3_ac" FLOAT DOUBLE
"csf3_ac_b" FLOAT DOUBLE
"csf4_factor" FLOAT DOUBLE
"csf4_ac" FLOAT DOUBLE
"csf4_ac_b" FLOAT DOUBLE
"csf5_factor" FLOAT DOUBLE
"csf5_ac" FLOAT DOUBLE
"csf5_ac_b" FLOAT DOUBLE
"csft4_factor" FLOAT DOUBLE
"csft4_ac" FLOAT DOUBLE
"csft4_ac_b" FLOAT DOUBLE
"csft5_factor" FLOAT DOUBLE
"csft5_ac" FLOAT DOUBLE
"csft5_ac_b" FLOAT DOUBLE
"csft6_factor" FLOAT DOUBLE
"csft6_ac" FLOAT DOUBLE
"csft6_ac_b" FLOAT DOUBLE
"csf3a_factor" FLOAT DOUBLE
"csf3a_ac" FLOAT DOUBLE
"csf3a_ac_b" FLOAT DOUBLE
"csf4a_factor" FLOAT DOUBLE
"csf4a_ac" FLOAT DOUBLE
"csf4a_ac_b" FLOAT DOUBLE
"csf5a_factor" FLOAT DOUBLE
"csf5a_ac" FLOAT DOUBLE
"csf5a_ac_b" FLOAT DOUBLE
"csft4a_factor" FLOAT DOUBLE
"csft4a_ac" FLOAT DOUBLE
"csft4a_ac_b" FLOAT DOUBLE
"csft5a_factor" FLOAT DOUBLE
"csft5a_ac" FLOAT DOUBLE
"csft5a_ac_b" FLOAT DOUBLE
"csft6a_factor" FLOAT DOUBLE
"csft6a_ac" FLOAT DOUBLE
"csft6a_ac_b" FLOAT DOUBLE
"cmm_ca" FLOAT DOUBLE
"cmm_cp" FLOAT DOUBLE
"cmm_ac" FLOAT DOUBLE
"cmmh_ca" FLOAT DOUBLE
"cmmh_cp" FLOAT DOUBLE
"cmmh_ac" FLOAT DOUBLE
"cdmm_ca" FLOAT DOUBLE
"cdmm_cp" FLOAT DOUBLE
"cdmm_ac" FLOAT DOUBLE
"cdmmh_ca" FLOAT DOUBLE
"cdmmh_cp" FLOAT DOUBLE
"cdmmh_ac" FLOAT DOUBLE
"ctmm_ca" FLOAT DOUBLE
"ctmm_cp" FLOAT DOUBLE
"ctmm_ac" FLOAT DOUBLE
"ctmmh_ca" FLOAT DOUBLE
"ctmmh_cp" FLOAT DOUBLE
"ctmmh_ac" FLOAT DOUBLE
"cp1sub_ca" FLOAT DOUBLE
"cp1sub_cp" FLOAT DOUBLE
"p_cap_c_m" FLOAT DOUBLE
"mosvc_rgmul" FLOAT DOUBLE
"mosvc_tox" FLOAT DOUBLE
"mosvc_vth0_d" FLOAT DOUBLE
"mosvc_xl" FLOAT DOUBLE
"mosvc_xw" FLOAT DOUBLE
"mosvci_rgmul" FLOAT DOUBLE
"mosvci_tox" FLOAT DOUBLE
"mosvci_vth0_d" FLOAT DOUBLE
"mosvci_xl" FLOAT DOUBLE
"mosvci_xw" FLOAT DOUBLE
"mosvc5_rgmul" FLOAT DOUBLE
"mosvc5_tox" FLOAT DOUBLE
"mosvc5_vth0_d" FLOAT DOUBLE
"mosvc5_xl" FLOAT DOUBLE
"mosvc5_xw" FLOAT DOUBLE
"mosvc5i_rgmul" FLOAT DOUBLE
"tox_mosvc5i" FLOAT DOUBLE
"vth0_d_mosvc5i" FLOAT DOUBLE
"xl_mosvc5i" FLOAT DOUBLE
"xw_mosvc5i" FLOAT DOUBLE
"dn_rs_r_mul" FLOAT DOUBLE
"dn_is_mul_exp" FLOAT DOUBLE
"dn_cjorbot" FLOAT DOUBLE
"dn_cjorsti" FLOAT DOUBLE
"dn_cjorgat" FLOAT DOUBLE
"dn_bot_mul" FLOAT DOUBLE
"dn_sti_mul" FLOAT DOUBLE
"dn_gat_mul" FLOAT DOUBLE
"dnn_rs_r_mul" FLOAT DOUBLE
"dnn_is_mul_exp" FLOAT DOUBLE
"dnn_cjorbot" FLOAT DOUBLE
"dnn_cjorsti" FLOAT DOUBLE
"dnn_bot_mul" FLOAT DOUBLE
"dnn_sti_mul" FLOAT DOUBLE
"dnn_gat_mul" FLOAT DOUBLE
"dp_rs_r_mul" FLOAT DOUBLE
"dp_is_mul_exp" FLOAT DOUBLE
"dp_cjorbot" FLOAT DOUBLE
"dp_cjorsti" FLOAT DOUBLE
"dp_cjorgat" FLOAT DOUBLE
"dp_bot_mul" FLOAT DOUBLE
"dp_sti_mul" FLOAT DOUBLE
"dp_gat_mul" FLOAT DOUBLE
"dnw_rs_r_mul" FLOAT DOUBLE
"dnw_is_mul_exp" FLOAT DOUBLE
"dnw_cjorbot" FLOAT DOUBLE
"dnw_cjorsti" FLOAT DOUBLE
"dnw_bot_mul" FLOAT DOUBLE
"dnw_sti_mul" FLOAT DOUBLE
"dnw_gat_mul" FLOAT DOUBLE
"dn5_rs_r_mul" FLOAT DOUBLE
"dn5_is_mul_exp" FLOAT DOUBLE
"dn5_cjorbot" FLOAT DOUBLE
"dn5_cjorsti" FLOAT DOUBLE
"dn5_cjorgat" FLOAT DOUBLE
"dn5_bot_mul" FLOAT DOUBLE
"dn5_sti_mul" FLOAT DOUBLE
"dn5_gat_mul" FLOAT DOUBLE
"dnn5_rs_r_mul" FLOAT DOUBLE
"dnn5_is_mul_exp" FLOAT DOUBLE
"dnn5_cjorbot" FLOAT DOUBLE
"dnn5_cjorsti" FLOAT DOUBLE
"dnn5_bot_mul" FLOAT DOUBLE
"dnn5_sti_mul" FLOAT DOUBLE
"dnn5_gat_mul" FLOAT DOUBLE
"dp5_rs_r_mul" FLOAT DOUBLE
"dp5_is_mul_exp" FLOAT DOUBLE
"dp5_cjorbot" FLOAT DOUBLE
"dp5_cjorsti" FLOAT DOUBLE
"dp5_cjorgat" FLOAT DOUBLE
"dp5_bot_mul" FLOAT DOUBLE
"dp5_sti_mul" FLOAT DOUBLE
"dp5_gat_mul" FLOAT DOUBLE
"dnw5_rs_r_mul" FLOAT DOUBLE
"dnw5_is_mul_exp" FLOAT DOUBLE
"dnw5_cjorbot" FLOAT DOUBLE
"dnw5_cjorsti" FLOAT DOUBLE
"dnw5_bot_mul" FLOAT DOUBLE
"dnw5_sti_mul" FLOAT DOUBLE
"dnw5_gat_mul" FLOAT DOUBLE
"ddnwmv_rs_r_mul" FLOAT DOUBLE
"ddnwmv_is_mul_exp" FLOAT DOUBLE
"ddnwmv_cjorbot_mul" FLOAT DOUBLE
"ddnwmv_cjorsti_mul" FLOAT DOUBLE
"ddnwmv_bot_mul" FLOAT DOUBLE
"ddnwmv_sti_mul" FLOAT DOUBLE
"ddnwmv_gat_mul" FLOAT DOUBLE
"dpdnwmv_rs_r_mul" FLOAT DOUBLE
"dpdnwmv_is_mul_exp" FLOAT DOUBLE
"dpdnwmv_cjorbot_mul" FLOAT DOUBLE
"dpdnwmv_cjorsti_mul" FLOAT DOUBLE
"dpdnwmv_bot_mul" FLOAT DOUBLE
"dpdnwmv_sti_mul" FLOAT DOUBLE
"dpdnwmv_gat_mul" FLOAT DOUBLE
"dipdnwmv_rs_r_mul" FLOAT DOUBLE
"dipdnwmv_is_mul_exp" FLOAT DOUBLE
"dipdnwmv_cjorbot" FLOAT DOUBLE
"dipdnwmv_cjorsti" FLOAT DOUBLE
"dipdnwmv_bot_mul" FLOAT DOUBLE
"dipdnwmv_sti_mul" FLOAT DOUBLE
"dipdnwmv_gat_mul" FLOAT DOUBLE
"dnp_cj" FLOAT DOUBLE
"dnp_cjsw" FLOAT DOUBLE
"dnp_bv" FLOAT DOUBLE
"dpp_cj" FLOAT DOUBLE
"dpp_cjsw" FLOAT DOUBLE
"dpp_bv" FLOAT DOUBLE
"dsa_vbv" FLOAT DOUBLE
"dsa_df1_dis" FLOAT DOUBLE
"dsa_df1_rs" FLOAT DOUBLE
"dsa_dr1_dis" FLOAT DOUBLE
"dsa_ppnp_dis" FLOAT DOUBLE
"dsaa_df_dis" FLOAT DOUBLE
"dsaa_dr_dis" FLOAT DOUBLE
"dsaa_df1_cj" FLOAT DOUBLE
"dsb_vbv" FLOAT DOUBLE
"dsb_df1_dis" FLOAT DOUBLE
"dsb_df1_rs" FLOAT DOUBLE
"dsb_dr1_dis" FLOAT DOUBLE
"dsb_ppnp_dis" FLOAT DOUBLE
"dsba_df_dis" FLOAT DOUBLE
"dsba_dr_dis" FLOAT DOUBLE
"dsba_df1_cj" FLOAT DOUBLE
"dndd_rs_r_mul" FLOAT DOUBLE
"dndd_is_mul_exp" FLOAT DOUBLE
"dndd_cjorbot" FLOAT DOUBLE
"dndd_cjorsti" FLOAT DOUBLE
"dndd_bot_mul" FLOAT DOUBLE
"dndd_sti_mul" FLOAT DOUBLE
"dndd_gat_mul" FLOAT DOUBLE
"dpdddnw_rs_r_mul" FLOAT DOUBLE
"dpdddnw_is_mul_exp" FLOAT DOUBLE
"dpdddnw_cjorbot" FLOAT DOUBLE
"dpdddnw_cjorsti" FLOAT DOUBLE
"dpdddnw_bot_mul" FLOAT DOUBLE
"dpdddnw_sti_mul" FLOAT DOUBLE
"dpdddnw_gat_mul" FLOAT DOUBLE
"dnddpb_cj" FLOAT DOUBLE
"dnddpb_cjsw" FLOAT DOUBLE
"dvdnw_rs_r_mul" FLOAT DOUBLE
"dvdnw_is_mul_exp" FLOAT DOUBLE
"dvdnw_cjorbot" FLOAT DOUBLE
"dvdnw_cjorsti" FLOAT DOUBLE
"dvdnw_bot_mul" FLOAT DOUBLE
"dvdnw_sti_mul" FLOAT DOUBLE
"dvdnw_gat_mul" FLOAT DOUBLE
"ddpbvdnw_rs_r_mul" FLOAT DOUBLE
"ddpbvdnw_is_mul_exp" FLOAT DOUBLE
"ddpbvdnw_cjorbot" FLOAT DOUBLE
"ddpbvdnw_cjorsti" FLOAT DOUBLE
"ddpbvdnw_bot_mul" FLOAT DOUBLE
"ddpbvdnw_sti_mul" FLOAT DOUBLE
"ddpbvdnw_gat_mul" FLOAT DOUBLE
"dndddpb_rs_r_mul" FLOAT DOUBLE
"dndddpb_is_mul_exp" FLOAT DOUBLE
"dndddpb_cjorbot" FLOAT DOUBLE
"dndddpb_cjorsti" FLOAT DOUBLE
"dndddpb_bot_mul" FLOAT DOUBLE
"dndddpb_sti_mul" FLOAT DOUBLE
"dndddpb_gat_mul" FLOAT DOUBLE
"dpddvdnw_esd_rs_r_mul" FLOAT DOUBLE
"dpddvdnw_esd_is_mul_exp" FLOAT DOUBLE
"dpddvdnw_esd_cjorbot" FLOAT DOUBLE
"dpddvdnw_esd_bot_mul" FLOAT DOUBLE
"dza_rs_res_mul" FLOAT DOUBLE
"dza_is_mul_exp" FLOAT DOUBLE
"dza_bot_mul" FLOAT DOUBLE
"dza_sti_mul" FLOAT DOUBLE
"dza_gat_mul" FLOAT DOUBLE
"dza_bv_mul" FLOAT DOUBLE
"ne_nch" FLOAT DOUBLE
"ne_tox" FLOAT DOUBLE
"ne_u0_m" FLOAT DOUBLE
"ne_nfactor_m" FLOAT DOUBLE
"ne_vth0_d" FLOAT DOUBLE
"ne_xl" FLOAT DOUBLE
"ne_xw" FLOAT DOUBLE
"ne_cgdo" FLOAT DOUBLE
"ne_cgso" FLOAT DOUBLE
"ne_cj" FLOAT DOUBLE
"ne_cjsw" FLOAT DOUBLE
"ne_cjswg" FLOAT DOUBLE
"ne_avt" FLOAT DOUBLE
"ne_au0" FLOAT DOUBLE
"pe_nch_d" FLOAT DOUBLE
"pe_tox" FLOAT DOUBLE
"pe_u0_m" FLOAT DOUBLE
"pe_vth0_d" FLOAT DOUBLE
"pe_xl" FLOAT DOUBLE
"pe_xw" FLOAT DOUBLE
"pe_cgdo" FLOAT DOUBLE
"pe_cgso" FLOAT DOUBLE
"pe_cj" FLOAT DOUBLE
"pe_cjsw" FLOAT DOUBLE
"pe_cjswg" FLOAT DOUBLE
"pe_avt" FLOAT DOUBLE
"pe_au0" FLOAT DOUBLE
"nn_tox" FLOAT DOUBLE
"nn_u0_m" FLOAT DOUBLE
"nn_vth0_d" FLOAT DOUBLE
"nn_xl" FLOAT DOUBLE
"nn_xw" FLOAT DOUBLE
"nn_cgdo" FLOAT DOUBLE
"nn_cgso" FLOAT DOUBLE
"nn_cj" FLOAT DOUBLE
"nn_cjsw" FLOAT DOUBLE
"nn_avt" FLOAT DOUBLE
"nn_au0" FLOAT DOUBLE
"nei_nch" FLOAT DOUBLE
"nei_tox" FLOAT DOUBLE
"nei_u0_m" FLOAT DOUBLE
"nei_nfactor_m" FLOAT DOUBLE
"nei_vth0_d" FLOAT DOUBLE
"nei_xl" FLOAT DOUBLE
"nei_xw" FLOAT DOUBLE
"nei_cgdo" FLOAT DOUBLE
"nei_cgso" FLOAT DOUBLE
"nei_cj" FLOAT DOUBLE
"nei_cjsw" FLOAT DOUBLE
"nei_cjswg" FLOAT DOUBLE
"nei_avt" FLOAT DOUBLE
"nei_au0" FLOAT DOUBLE
"pei_nch" FLOAT DOUBLE
"pei_tox" FLOAT DOUBLE
"pei_u0_m" FLOAT DOUBLE
"pei_vth0_d" FLOAT DOUBLE
"pei_xl" FLOAT DOUBLE
"pei_xw" FLOAT DOUBLE
"pei_cgdo" FLOAT DOUBLE
"pei_cgso" FLOAT DOUBLE
"pei_cj" FLOAT DOUBLE
"pei_cjsw" FLOAT DOUBLE
"pei_cjswg" FLOAT DOUBLE
"pei_Avt" FLOAT DOUBLE
"pei_Au0" FLOAT DOUBLE
"nd5_avt" FLOAT DOUBLE
"nd5_au0" FLOAT DOUBLE
"nd5_nch_m" FLOAT DOUBLE
"nd5_tox" FLOAT DOUBLE
"nd5_u0_m" FLOAT DOUBLE
"nd5_vth0_d" FLOAT DOUBLE
"nd5_xl" FLOAT DOUBLE
"nd5_xw" FLOAT DOUBLE
"nd5_cgdo_m" FLOAT DOUBLE
"nd5_cgso_m" FLOAT DOUBLE
"nd5_cj" FLOAT DOUBLE
"nd5_cjsw" FLOAT DOUBLE
"nd5_cjswg" FLOAT DOUBLE
"nd5i_avt" FLOAT DOUBLE
"nd5i_au0" FLOAT DOUBLE
"nd5i_nch_m" FLOAT DOUBLE
"nd5i_tox" FLOAT DOUBLE
"nd5i_u0_m" FLOAT DOUBLE
"nd5i_vth0_d" FLOAT DOUBLE
"nd5i_xl" FLOAT DOUBLE
"nd5i_xw" FLOAT DOUBLE
"nd5i_cgdo_m" FLOAT DOUBLE
"nd5i_cgso_m" FLOAT DOUBLE
"nd5i_cj" FLOAT DOUBLE
"nd5i_cjsw" FLOAT DOUBLE
"nd5i_cjswg" FLOAT DOUBLE
"nn5_nch" FLOAT DOUBLE
"nn5_tox" FLOAT DOUBLE
"nn5_u0_m" FLOAT DOUBLE
"nn5_vth0" FLOAT DOUBLE
"nn5_xl" FLOAT DOUBLE
"nn5_xw" FLOAT DOUBLE
"nn5_cgdo" FLOAT DOUBLE
"nn5_cgso" FLOAT DOUBLE
"nn5_cj" FLOAT DOUBLE
"nn5_cjsw" FLOAT DOUBLE
"nn5_avt" FLOAT DOUBLE
"nn5_au0" FLOAT DOUBLE
"nn5_jf_beta_m" FLOAT DOUBLE
"nn5_jf_vto_m" FLOAT DOUBLE
"ne5_nch" FLOAT DOUBLE
"ne5_tox" FLOAT DOUBLE
"ne5_u0_m" FLOAT DOUBLE
"ne5_nfactor_m" FLOAT DOUBLE
"ne5_vth0_d" FLOAT DOUBLE
"ne5_xl" FLOAT DOUBLE
"ne5_xw" FLOAT DOUBLE
"ne5_rdsw" FLOAT DOUBLE
"ne5_cgdo" FLOAT DOUBLE
"ne5_cgso" FLOAT DOUBLE
"ne5_cj" FLOAT DOUBLE
"ne5_cjsw" FLOAT DOUBLE
"ne5_cjswg" FLOAT DOUBLE
"ne5_avt" FLOAT DOUBLE
"ne5_au0" FLOAT DOUBLE
"pe5_nch" FLOAT DOUBLE
"pe5_tox" FLOAT DOUBLE
"pe5_u0_m" FLOAT DOUBLE
"pe5_nfactor_m" FLOAT DOUBLE
"pe5_vth0_d" FLOAT DOUBLE
"pe5_xl" FLOAT DOUBLE
"pe5_xw" FLOAT DOUBLE
"pe5_rdsw" FLOAT DOUBLE
"pe5_cgdo" FLOAT DOUBLE
"pe5_cgso" FLOAT DOUBLE
"pe5_cj" FLOAT DOUBLE
"pe5_cjsw" FLOAT DOUBLE
"pe5_cjswg" FLOAT DOUBLE
"pe5_avt" FLOAT DOUBLE
"pe5_au0" FLOAT DOUBLE
"ne5i_nch" FLOAT DOUBLE
"ne5i_tox" FLOAT DOUBLE
"ne5i_u0_m" FLOAT DOUBLE
"ne5i_nfactor_m" FLOAT DOUBLE
"ne5i_vth0_d" FLOAT DOUBLE
"ne5i_xl" FLOAT DOUBLE
"ne5i_xw" FLOAT DOUBLE
"ne5i_rdsw" FLOAT DOUBLE
"ne5i_cgdo" FLOAT DOUBLE
"ne5i_cgso" FLOAT DOUBLE
"ne5i_cj" FLOAT DOUBLE
"ne5i_cjsw" FLOAT DOUBLE
"ne5i_cjswg" FLOAT DOUBLE
"ne5i_avt" FLOAT DOUBLE
"ne5i_au0" FLOAT DOUBLE
"pe5i_nch" FLOAT DOUBLE
"pe5i_tox" FLOAT DOUBLE
"pe5i_u0_m" FLOAT DOUBLE
"pe5i_nfactor_m" FLOAT DOUBLE
"pe5i_vth0_d" FLOAT DOUBLE
"pe5i_xl" FLOAT DOUBLE
"pe5i_xw" FLOAT DOUBLE
"pe5i_rdsw" FLOAT DOUBLE
"pe5i_cgdo" FLOAT DOUBLE
"pe5i_cgso" FLOAT DOUBLE
"pe5i_cj" FLOAT DOUBLE
"pe5i_cjsw" FLOAT DOUBLE
"pe5i_cjswg" FLOAT DOUBLE
"pe5i_avt" FLOAT DOUBLE
"pe5i_au0" FLOAT DOUBLE
"nede_tox" FLOAT DOUBLE
"nede_nsubc" FLOAT DOUBLE
"nede_mueph1" FLOAT DOUBLE
"nede_vmax" FLOAT DOUBLE
"nede_rd" FLOAT DOUBLE
"nede_lovers" FLOAT DOUBLE
"nede_loverld" FLOAT DOUBLE
"nede_cjd" FLOAT DOUBLE
"nede_cjswd" FLOAT DOUBLE
"nede_cjs" FLOAT DOUBLE
"nede_cjsws" FLOAT DOUBLE
"neda_tox" FLOAT DOUBLE
"neda_nsubc" FLOAT DOUBLE
"neda_mueph1" FLOAT DOUBLE
"neda_rd" FLOAT DOUBLE
"neda_lovers" FLOAT DOUBLE
"neda_loverld" FLOAT DOUBLE
"neda_cjd" FLOAT DOUBLE
"neda_cjswd" FLOAT DOUBLE
"neda_cjs" FLOAT DOUBLE
"neda_cjsws" FLOAT DOUBLE
"nedb_tox" FLOAT DOUBLE
"nedb_nsubc" FLOAT DOUBLE
"nedb_mueph1" FLOAT DOUBLE
"nedb_rd" FLOAT DOUBLE
"nedb_lovers" FLOAT DOUBLE
"nedb_loverld" FLOAT DOUBLE
"nedb_cjd" FLOAT DOUBLE
"nedb_cjswd" FLOAT DOUBLE
"nedb_cjs" FLOAT DOUBLE
"nedb_cjsws" FLOAT DOUBLE
"nedc_tox" FLOAT DOUBLE
"nedc_nsubc" FLOAT DOUBLE
"nedc_mueph1" FLOAT DOUBLE
"nedc_rd" FLOAT DOUBLE
"nedc_lovers" FLOAT DOUBLE
"nedc_loverld" FLOAT DOUBLE
"nedc_cjs" FLOAT DOUBLE
"nedc_cjswd" FLOAT DOUBLE
"nedc_cjd" FLOAT DOUBLE
"nedc_cjsws" FLOAT DOUBLE
"nedd_tox" FLOAT DOUBLE
"nedd_nsubc" FLOAT DOUBLE
"nedd_vfbc" FLOAT DOUBLE
"nedd_mueph1" FLOAT DOUBLE
"nedd_vmax" FLOAT DOUBLE
"nedd_rd" FLOAT DOUBLE
"nedd_rd23" FLOAT DOUBLE
"nedd_lovers" FLOAT DOUBLE
"nedd_loverld" FLOAT DOUBLE
"nedd_cjd" FLOAT DOUBLE
"nedd_cjswd" FLOAT DOUBLE
"nedd_cjs" FLOAT DOUBLE
"nedd_cjsws" FLOAT DOUBLE
"pede_tox" FLOAT DOUBLE
"pede_nsubc" FLOAT DOUBLE
"pede_mueph1" FLOAT DOUBLE
"pede_rd" FLOAT DOUBLE
"pede_lovers" FLOAT DOUBLE
"pede_loverld" FLOAT DOUBLE
"pede_cjd" FLOAT DOUBLE
"pede_cjswd" FLOAT DOUBLE
"pede_cjs" FLOAT DOUBLE
"pede_cjsws" FLOAT DOUBLE
"peda_tox" FLOAT DOUBLE
"peda_nsubc" FLOAT DOUBLE
"peda_mueph1" FLOAT DOUBLE
"peda_rd" FLOAT DOUBLE
"peda_lovers" FLOAT DOUBLE
"peda_loverld" FLOAT DOUBLE
"peda_cjd" FLOAT DOUBLE
"peda_cjswd" FLOAT DOUBLE
"peda_cjs" FLOAT DOUBLE
"peda_cjsws" FLOAT DOUBLE
"pedb_tox" FLOAT DOUBLE
"pedb_nsubc" FLOAT DOUBLE
"pedb_mueph1" FLOAT DOUBLE
"pedb_rd" FLOAT DOUBLE
"pedb_lovers" FLOAT DOUBLE
"pedb_loverld" FLOAT DOUBLE
"pedb_cjd" FLOAT DOUBLE
"pedb_cjswd" FLOAT DOUBLE
"pedb_cjs" FLOAT DOUBLE
"pedb_cjsws" FLOAT DOUBLE
"pedc_tox" FLOAT DOUBLE
"pedc_nsubc" FLOAT DOUBLE
"pedc_mueph1" FLOAT DOUBLE
"pedc_rd" FLOAT DOUBLE
"pedc_lovers" FLOAT DOUBLE
"pedc_loverld" FLOAT DOUBLE
"pedc_cjd" FLOAT DOUBLE
"pedc_cjswd" FLOAT DOUBLE
"pedc_cjs" FLOAT DOUBLE
"pedc_cjsws" FLOAT DOUBLE
"pedd_tox" FLOAT DOUBLE
"pedd_nsubc" FLOAT DOUBLE
"pedd_vfbc_m" FLOAT DOUBLE
"pedd_mueph1" FLOAT DOUBLE
"pedd_vmax" FLOAT DOUBLE
"pedd_rd" FLOAT DOUBLE
"pedd_rd23" FLOAT DOUBLE
"pedd_lovers" FLOAT DOUBLE
"pedd_loverld" FLOAT DOUBLE
"pedd_cjd" FLOAT DOUBLE
"pedd_cjswd" FLOAT DOUBLE
"pedd_cjs" FLOAT DOUBLE
"pedd_cjsws" FLOAT DOUBLE
"nmma_tox" FLOAT DOUBLE
"nmma_nsubc" FLOAT DOUBLE
"nmma_mueph1" FLOAT DOUBLE
"nmma_rd" FLOAT DOUBLE
"nmma_rs" FLOAT DOUBLE
"nmma_loverld" FLOAT DOUBLE
"nmmb_tox" FLOAT DOUBLE
"nmmb_nsubc" FLOAT DOUBLE
"nmmb_mueph1" FLOAT DOUBLE
"nmmb_rd" FLOAT DOUBLE
"nmmb_rs" FLOAT DOUBLE
"nmmb_loverld" FLOAT DOUBLE
"nmb_tox" FLOAT DOUBLE
"nmb_nsubc" FLOAT DOUBLE
"nmb_mueph1" FLOAT DOUBLE
"nmb_rd" FLOAT DOUBLE
"nmb_lovers" FLOAT DOUBLE
"nmb_loverld" FLOAT DOUBLE
"nmmc_tox" FLOAT DOUBLE
"nmmc_nsubc" FLOAT DOUBLE
"nmmc_mueph1" FLOAT DOUBLE
"nmmc_rd" FLOAT DOUBLE
"nmmc_rs" FLOAT DOUBLE
"nmmc_loverld" FLOAT DOUBLE
"nmc_tox" FLOAT DOUBLE
"nmc_nsubc" FLOAT DOUBLE
"nmc_mueph1" FLOAT DOUBLE
"nmc_rd" FLOAT DOUBLE
"nmc_lovers" FLOAT DOUBLE
"nmc_loverld" FLOAT DOUBLE
"pmma_tox" FLOAT DOUBLE
"pmma_nsubc" FLOAT DOUBLE
"pmma_rd" FLOAT DOUBLE
"pmma_rs" FLOAT DOUBLE
"pmma_loverld" FLOAT DOUBLE
"pmmb_tox" FLOAT DOUBLE
"pmmb_nsubc" FLOAT DOUBLE
"pmmb_rd" FLOAT DOUBLE
"pmmb_rs" FLOAT DOUBLE
"pmmb_loverld" FLOAT DOUBLE
"pmb_tox" FLOAT DOUBLE
"pmb_nsubc" FLOAT DOUBLE
"pmb_mueph1" FLOAT DOUBLE
"pmb_rd" FLOAT DOUBLE
"pmb_rdvd" FLOAT DOUBLE
"pmb_lovers" FLOAT DOUBLE
"pmb_loverld" FLOAT DOUBLE
"pmmc_tox" FLOAT DOUBLE
"pmmc_nsubc" FLOAT DOUBLE
"pmmc_rd" FLOAT DOUBLE
"pmmc_rs" FLOAT DOUBLE
"pmmc_loverld" FLOAT DOUBLE
"pmc_tox" FLOAT DOUBLE
"pmc_nsubc" FLOAT DOUBLE
"pmc_mueph1" FLOAT DOUBLE
"pmc_rd" FLOAT DOUBLE
"pmc_rdvd" FLOAT DOUBLE
"pmc_lovers" FLOAT DOUBLE
"pmc_loverld" FLOAT DOUBLE
"nel_toxe" FLOAT DOUBLE
"nel_u0_m" FLOAT DOUBLE
"nel_nfactor_m" FLOAT DOUBLE
"nel_k1_m" FLOAT DOUBLE
"nel_k2_m" FLOAT DOUBLE
"nel_voff_m" FLOAT DOUBLE
"nel_vth0_d" FLOAT DOUBLE
"nel_xl" FLOAT DOUBLE
"nel_xw" FLOAT DOUBLE
"nel_rdsw_m" FLOAT DOUBLE
"nel_cgdo" FLOAT DOUBLE
"nel_cgdl" FLOAT DOUBLE
"nel_cgso" FLOAT DOUBLE
"nel_cgsl" FLOAT DOUBLE
"nel_vtmm" FLOAT DOUBLE
"nel_u0mm" FLOAT DOUBLE
"pel_toxe" FLOAT DOUBLE
"pel_u0_m" FLOAT DOUBLE
"pel_nfactor_m" FLOAT DOUBLE
"pel_k1_m" FLOAT DOUBLE
"pel_k2_m" FLOAT DOUBLE
"pel_voff_m" FLOAT DOUBLE
"pel_vth0_d" FLOAT DOUBLE
"pel_xl" FLOAT DOUBLE
"pel_xw" FLOAT DOUBLE
"pel_rdsw_m" FLOAT DOUBLE
"pel_cgdo" FLOAT DOUBLE
"pel_cgdl" FLOAT DOUBLE
"pel_cgso" FLOAT DOUBLE
"pel_cgsl" FLOAT DOUBLE
"pel_vtmm" FLOAT DOUBLE
"pel_u0mm" FLOAT DOUBLE
"rdn_rsh" FLOAT DOUBLE
"rdn_dw" FLOAT DOUBLE
"rdn_ar" FLOAT DOUBLE
"rdp_rsh" FLOAT DOUBLE
"rdp_dw" FLOAT DOUBLE
"rdp_ar" FLOAT DOUBLE
"rnw_rsh" FLOAT DOUBLE
"rnw_dw" FLOAT DOUBLE
"rnw_ar" FLOAT DOUBLE
"rdn5_rsh" FLOAT DOUBLE
"rdn5_dw" FLOAT DOUBLE
"rdn5_ar" FLOAT DOUBLE
"rdp5_rsh" FLOAT DOUBLE
"rdp5_dw" FLOAT DOUBLE
"rdp5_ar" FLOAT DOUBLE
"rnw5_rsh" FLOAT DOUBLE
"rnw5_dw" FLOAT DOUBLE
"rnw5_ar" FLOAT DOUBLE
"rdnwmv_rsh" FLOAT DOUBLE
"rdnwmv_ar" FLOAT DOUBLE
"rnp1_rsh" FLOAT DOUBLE
"rnp1_dw" FLOAT DOUBLE
"rnp1_ar" FLOAT DOUBLE
"rpp1_rsh" FLOAT DOUBLE
"rpp1_dw" FLOAT DOUBLE
"rpp1_ar" FLOAT DOUBLE
"rpp1s_rsh" FLOAT DOUBLE
"rpp1s_dw" FLOAT DOUBLE
"rpp1s_ar" FLOAT DOUBLE
"rnp1h_rsh" FLOAT DOUBLE
"rnp1h_dw" FLOAT DOUBLE
"rnp1h_ar" FLOAT DOUBLE
"rpp1k1_rsh" FLOAT DOUBLE
"rpp1k1_dw" FLOAT DOUBLE
"rpp1k1_ar" FLOAT DOUBLE
"rm1_rsh" FLOAT DOUBLE
"rm1_dw" FLOAT DOUBLE
"rm2_rsh" FLOAT DOUBLE
"rm2_dw" FLOAT DOUBLE
"rm3_rsh" FLOAT DOUBLE
"rm3_dw" FLOAT DOUBLE
"rm4_rsh" FLOAT DOUBLE
"rm4_dw" FLOAT DOUBLE
"rm5_rsh" FLOAT DOUBLE
"rm5_dw" FLOAT DOUBLE
"rmtp_rsh" FLOAT DOUBLE
"rmtp_dw" FLOAT DOUBLE
"rmtpl_rsh" FLOAT DOUBLE
"rmtpl_dw" FLOAT DOUBLE
"rctdn_rsh" FLOAT DOUBLE
"rctdp_rsh" FLOAT DOUBLE
"rsildn_rsh" FLOAT DOUBLE
"rsildn_dw" FLOAT DOUBLE
"rsildp_rsh" FLOAT DOUBLE
"rsildp_dw" FLOAT DOUBLE
"rctp1_rsh" FLOAT DOUBLE
"rsilnp1_rsh" FLOAT DOUBLE
"rsilnp1_dw" FLOAT DOUBLE
"rsilpp1_rsh" FLOAT DOUBLE
"rsilpp1_dw" FLOAT DOUBLE
"rsilpp1_ar" FLOAT DOUBLE
"rsbdn_rsh" FLOAT DOUBLE
"rsbdp_rsh" FLOAT DOUBLE
"rsbdn5_rsh" FLOAT DOUBLE
"rsbdp5_rsh" FLOAT DOUBLE
"rsbnp1_rsh" FLOAT DOUBLE
"rsbpp1_rsh" FLOAT DOUBLE
"rsbpp1k1_rsh" FLOAT DOUBLE
"rsbpp1k1_dw" FLOAT DOUBLE
"pfuse_rsh" FLOAT DOUBLE
"p_rvia1_rsh" FLOAT DOUBLE
"p_rvia2_rsh" FLOAT DOUBLE
"p_rvia3_rsh" FLOAT DOUBLE
"p_rvia4_rsh" FLOAT DOUBLE
"p_rviatp_rsh" FLOAT DOUBLE
"p_rviatpl_rsh" FLOAT DOUBLE
) PROP(
"key" "parameters"
)
VALUE
"top-level" "top-level" (
2.700000000000000e+01
2.700000000000000e+01
0.000000000000000e+00
1.800000000000000e+00
2.000000000000000e-01
0.000000000000000e+00
1.000000000000000e+00
3.000000000000000e+00
3.000000000000000e+00
3.000000000000000e+00
3.000000000000000e+00
3.000000000000000e+00
3.000000000000000e+00
0.000000000000000e+00
1.000000000000000e+00
1.000000000000000e+00
1.000000000000000e+00
1.000000000000000e+00
1.000000000000000e+00
1.000000000000000e+00
1.000000000000000e+00
1.000000000000000e+00
1.000000000000000e+00
1.000000000000000e+00
1.000000000000000e+00
0.000000000000000e+00
0.000000000000000e+00
0.000000000000000e+00
1.000000000000000e+00
1.000000000000000e+00
1.000000000000000e+00
1.000000000000000e+00
1.000000000000000e+00
1.000000000000000e+00
1.000000000000000e+00
1.000000000000000e+00
1.000000000000000e+00
1.000000000000000e+00
1.000000000000000e+00
0.000000000000000e+00
0.000000000000000e+00
0.000000000000000e+00
1.000000000000000e+00
1.000000000000000e+00
1.000000000000000e+00
1.000000000000000e+00
1.000000000000000e+00
1.000000000000000e+00
1.000000000000000e+00
1.000000000000000e+00
1.000000000000000e+00
1.000000000000000e+00
1.000000000000000e+00
0.000000000000000e+00
0.000000000000000e+00
0.000000000000000e+00
0.000000000000000e+00
1.000000000000000e+00
1.000000000000000e+00
1.000000000000000e+00
1.000000000000000e+00
1.000000000000000e+00
1.000000000000000e+00
1.000000000000000e+00
1.000000000000000e+00
1.000000000000000e+00
1.000000000000000e+00
1.000000000000000e+00
0.000000000000000e+00
0.000000000000000e+00
0.000000000000000e+00
0.000000000000000e+00
1.000000000000000e+00
1.000000000000000e+00
1.000000000000000e+00
1.000000000000000e+00
1.000000000000000e+00
1.000000000000000e+00
1.000000000000000e+00
1.000000000000000e+00
1.000000000000000e+00
1.000000000000000e+00
1.000000000000000e+00
0.000000000000000e+00
0.000000000000000e+00
0.000000000000000e+00
0.000000000000000e+00
0.000000000000000e+00
1.000000000000000e+00
1.000000000000000e+00
1.000000000000000e+00
1.000000000000000e+00
1.000000000000000e+00
1.000000000000000e+00
1.000000000000000e+00
1.000000000000000e+00
1.000000000000000e+00
1.000000000000000e+00
1.000000000000000e+00
0.000000000000000e+00
0.000000000000000e+00
0.000000000000000e+00
0.000000000000000e+00
0.000000000000000e+00
1.000000000000000e+00
1.000000000000000e+00
1.000000000000000e+00
1.000000000000000e+00
1.000000000000000e+00
1.000000000000000e+00
1.000000000000000e+00
1.000000000000000e+00
1.000000000000000e+00
1.000000000000000e+00
0.000000000000000e+00
0.000000000000000e+00
1.000000000000000e+00
0.000000000000000e+00