HEADER
"PSFversion" "1.00"
"design" "(\"NE2\" \"tb_nmos\" \"schematic\" \"\")"
"simulator" "spectre"
"temperature" "27"
"host" ""
"date" "Mar  6 00:05:22 2022"
"title" ""
"analysisList" "()"
END
