HEADER
"PSFversion" "1.00"
"Time Stamp" "Mar  6 00:05:22 2022"
TYPE
"variable" STRUCT(
"value" FLOAT DOUBLE
) PROP( "key" "element" )
VALUE
"vgs" "variable" ( 200e-3 ) PROP( )
"vds" "variable" ( 1.8 ) PROP( )
"temp" "variable" ( 27 ) PROP( )
END
